VARIABLES="w (rad/s)"
"abs(F   1   1)" "angle(F   1   1)"
"abs(F   1   2)" "angle(F   1   2)"
"abs(F   1   3)" "angle(F   1   3)"
"abs(F   1   4)" "angle(F   1   4)"
"abs(F   1   5)" "angle(F   1   5)"
"abs(F   1   6)" "angle(F   1   6)"
Zone t="Diffraction force - beta =   0.000 deg",I=    10,F=POINT
  0.1000000E+00  0.4733966E+02 -0.1570958E+01  0.1049813E-01 -0.2355275E+01  0.6223513E+02 -0.3134477E+01  0.7648739E-02  0.9005325E+00  0.1767334E+02  0.1570967E+01  0.9461315E-03 -0.1683516E+01
  0.2000000E+00  0.1122990E+03 -0.1571069E+01  0.3448240E-01 -0.2607742E+01  0.2514634E+03 -0.3128637E+01  0.2330547E-01  0.6570814E+00  0.4203156E+02  0.1571072E+01  0.2263896E-02 -0.1754544E+01
  0.3000000E+00  0.2236838E+03 -0.1571092E+01  0.7362576E-01 -0.2641599E+01  0.5741981E+03 -0.3112682E+01  0.5331025E-01  0.5833258E+00  0.8314127E+02  0.1571119E+01  0.4542514E-02 -0.1807680E+01
  0.4000000E+00  0.3907736E+03 -0.1571088E+01  0.1332602E+00 -0.2653738E+01  0.1035313E+04 -0.3090560E+01  0.8737955E-01  0.5906512E+00  0.1444957E+03  0.1571094E+01  0.7882442E-02 -0.1787208E+01
  0.5000000E+00  0.6026511E+03 -0.1571041E+01  0.2088916E+00 -0.2643177E+01  0.1637773E+04 -0.3064615E+01  0.1394781E+00  0.6042430E+00  0.2214711E+03  0.1571095E+01  0.1208333E-01 -0.1777379E+01
  0.6000000E+00  0.8541054E+03 -0.1570899E+01  0.2919298E+00 -0.2619872E+01  0.2382030E+04 -0.3035034E+01  0.2134323E+00  0.6039081E+00  0.3114090E+03  0.1571098E+01  0.1701142E-01 -0.1767454E+01
  0.7000000E+00  0.1140861E+04 -0.1570617E+01  0.4032784E+00 -0.2616420E+01  0.3267392E+04 -0.3002669E+01  0.2803293E+00  0.6111294E+00  0.4127952E+03  0.1571020E+01  0.2262463E-01 -0.1707929E+01
  0.8000000E+00  0.1458399E+04 -0.1570060E+01  0.5275199E+00 -0.2616270E+01  0.4283567E+04 -0.2968124E+01  0.3484387E+00  0.6251402E+00  0.5232830E+03  0.1570863E+01  0.2841955E-01 -0.1723059E+01
  0.9000000E+00  0.1800017E+04 -0.1569065E+01  0.6602579E+00 -0.2604661E+01  0.5419465E+04 -0.2932278E+01  0.4550296E+00  0.6411099E+00  0.6398297E+03  0.1570594E+01  0.3474381E-01 -0.1641879E+01
  0.9999999E+00  0.2161702E+04 -0.1567436E+01  0.8139839E+00 -0.2591521E+01  0.6667479E+04 -0.2895683E+01  0.5564936E+00  0.6441483E+00  0.7618209E+03  0.1570006E+01  0.4092934E-01 -0.1644251E+01
Zone t="Diffraction force - beta =  90.000 deg",I=    10,F=POINT
  0.1000000E+00  0.1154453E-01 -0.2293704E+01  0.4735927E+02 -0.1570952E+01  0.6223520E+02 -0.3135112E+01  0.1767083E+02 -0.1570529E+01  0.7814085E-02 -0.1966486E+01  0.7109548E-03  0.1723699E+01
  0.2000000E+00  0.3670088E-01 -0.2550940E+01  0.1123456E+03 -0.1571059E+01  0.2514636E+03 -0.3129013E+01  0.4202589E+02 -0.1570360E+01  0.2048915E-01 -0.2170290E+01  0.1723077E-02  0.1819499E+01
  0.3000000E+00  0.7819658E-01 -0.2585384E+01  0.2237778E+03 -0.1571078E+01  0.5741984E+03 -0.3113018E+01  0.8312920E+02 -0.1570267E+01  0.4385351E-01 -0.2229051E+01  0.3549648E-02  0.1888305E+01
  0.4000000E+00  0.1409095E+00 -0.2592181E+01  0.3909382E+03 -0.1571073E+01  0.1035318E+04 -0.3090890E+01  0.1444738E+03 -0.1570305E+01  0.7354290E-01 -0.2195129E+01  0.6229068E-02  0.1867869E+01
  0.5000000E+00  0.2198014E+00 -0.2580425E+01  0.6029097E+03 -0.1571023E+01  0.1637786E+04 -0.3064944E+01  0.2214342E+03 -0.1570302E+01  0.1149732E+00 -0.2200189E+01  0.9734318E-02  0.1862374E+01
  0.6000000E+00  0.3035916E+00 -0.2547934E+01  0.8544849E+03 -0.1570880E+01  0.2382062E+04 -0.3035362E+01  0.3113464E+03 -0.1570287E+01  0.1722136E+00 -0.2208943E+01  0.1402683E-01  0.1859203E+01
  0.7000000E+00  0.4141155E+00 -0.2534485E+01  0.1141385E+04 -0.1570596E+01  0.3267444E+04 -0.3002995E+01  0.4126981E+03 -0.1570364E+01  0.2260488E+00 -0.2167174E+01  0.1864447E-01  0.1805249E+01
  0.8000000E+00  0.5358980E+00 -0.2522770E+01  0.1459087E+04 -0.1570036E+01  0.4283659E+04 -0.2968447E+01  0.5231497E+03 -0.1570531E+01  0.2825112E+00 -0.2139334E+01  0.2490317E-01  0.1832328E+01
  0.9000000E+00  0.6692945E+00 -0.2477278E+01  0.1800898E+04 -0.1569036E+01  0.5419622E+04 -0.2932600E+01  0.6396508E+03 -0.1570820E+01  0.3685924E+00 -0.2159540E+01  0.3075565E-01  0.1764091E+01
  0.9999999E+00  0.8144192E+00 -0.2445942E+01  0.2162803E+04 -0.1567402E+01  0.6667721E+04 -0.2896002E+01  0.7615757E+03 -0.1571411E+01  0.4523035E+00 -0.2132884E+01  0.3870800E-01  0.1787997E+01
