VARIABLES="w (rad/s)"
"abs(F   1   1)" "angle(F   1   1)"
"abs(F   1   2)" "angle(F   1   2)"
"abs(F   1   3)" "angle(F   1   3)"
"abs(F   1   4)" "angle(F   1   4)"
"abs(F   1   5)" "angle(F   1   5)"
"abs(F   1   6)" "angle(F   1   6)"
Zone t="Diffraction force - beta =   0.000 deg",I=    10,F=POINT
  0.1000000E+00  0.1251388E+03 -0.1577489E+01  0.8566107E+00 -0.3129877E+01  0.6384703E+05 -0.6939575E-05  0.4557646E+00  0.3124245E+01  0.3673625E+01 -0.1821667E+01  0.6482317E-01 -0.3095153E+01
  0.2000000E+00  0.2969517E+03 -0.1573717E+01  0.8792884E+00 -0.3114577E+01  0.6358968E+05 -0.5124239E-04  0.4449083E+00  0.3099355E+01  0.8977840E+01 -0.1672336E+01  0.6662083E-01 -0.3034182E+01
  0.3000000E+00  0.5918124E+03 -0.1572336E+01  0.9115368E+00 -0.3089191E+01  0.6315310E+05 -0.2628408E-03  0.4182601E+00  0.3049474E+01  0.2036629E+02 -0.1616549E+01  0.7028841E-01 -0.2937680E+01
  0.4000000E+00  0.1036954E+04 -0.1571719E+01  0.9626994E+00 -0.3053738E+01  0.6253205E+05 -0.8445910E-03  0.3966737E+00  0.2977659E+01  0.4176205E+02 -0.1593085E+01  0.7634843E-01 -0.2808375E+01
  0.5000000E+00  0.1605705E+04 -0.1571423E+01  0.1025517E+01 -0.3010198E+01  0.6172394E+05 -0.2040553E-02  0.3655498E+00  0.2852041E+01  0.7673403E+02 -0.1583131E+01  0.8556522E-01 -0.2672014E+01
  0.6000000E+00  0.2287196E+04 -0.1571217E+01  0.1096710E+01 -0.2962463E+01  0.6072956E+05 -0.4171816E-02  0.3302209E+00  0.2644805E+01  0.1303399E+03 -0.1578030E+01  0.9818766E-01 -0.2544072E+01
  0.7000000E+00  0.3073518E+04 -0.1571017E+01  0.1196275E+01 -0.2913531E+01  0.5955243E+05 -0.7597860E-02  0.3201122E+00  0.2425290E+01  0.2076271E+03 -0.1575306E+01  0.1135325E+00 -0.2424469E+01
  0.8000000E+00  0.3956044E+04 -0.1570753E+01  0.1311052E+01 -0.2868039E+01  0.5820700E+05 -0.1270249E-01  0.3321295E+00  0.2200861E+01  0.3147468E+03 -0.1573483E+01  0.1327872E+00 -0.2335126E+01
  0.9000000E+00  0.4923526E+04 -0.1570349E+01  0.1430328E+01 -0.2820076E+01  0.5671006E+05 -0.1985887E-01  0.3710676E+00  0.1877828E+01  0.4586176E+03 -0.1572253E+01  0.1532270E+00 -0.2243970E+01
  0.9999999E+00  0.5966985E+04 -0.1569734E+01  0.1571585E+01 -0.2772108E+01  0.5507614E+05 -0.2947520E-01  0.4364195E+00  0.1655814E+01  0.6436312E+03 -0.1571080E+01  0.1772545E+00 -0.2182969E+01
Zone t="Diffraction force - beta =  90.000 deg",I=    10,F=POINT
  0.1000000E+00  0.8425729E+00 -0.3128378E+01  0.1251581E+03 -0.1577645E+01  0.6384704E+05 -0.6310546E-05  0.3583646E+01  0.1698336E+01  0.9096041E+00 -0.3132388E+01  0.6482226E-01  0.3099704E+01
  0.2000000E+00  0.8678423E+00 -0.3111247E+01  0.2969971E+03 -0.1573753E+01  0.6358966E+05 -0.4972947E-04  0.8932251E+01  0.1620519E+01  0.9182488E+00 -0.3120163E+01  0.6658854E-01  0.3044488E+01
  0.3000000E+00  0.9117900E+00 -0.3083342E+01  0.5919041E+03 -0.1572332E+01  0.6315310E+05 -0.2597423E-03  0.2032891E+02  0.1591417E+01  0.9264696E+00 -0.3098180E+01  0.7019468E-01  0.2956060E+01
  0.4000000E+00  0.9711010E+00 -0.3044219E+01  0.1037115E+04 -0.1571712E+01  0.6253198E+05 -0.8390537E-03  0.4171844E+02  0.1580238E+01  0.9229342E+00 -0.3066338E+01  0.7614982E-01  0.2836794E+01
  0.5000000E+00  0.1052823E+01 -0.2999066E+01  0.1605956E+04 -0.1571402E+01  0.6172385E+05 -0.2031723E-02  0.7667693E+02  0.1575448E+01  0.9392819E+00 -0.3026230E+01  0.8534060E-01  0.2709699E+01
  0.6000000E+00  0.1142746E+01 -0.2950722E+01  0.2287565E+04 -0.1571189E+01  0.6072946E+05 -0.4158859E-02  0.1302718E+03  0.1573155E+01  0.9729559E+00 -0.2976267E+01  0.9822606E-01  0.2590155E+01
  0.7000000E+00  0.1258044E+01 -0.2900607E+01  0.3074024E+04 -0.1570988E+01  0.5955226E+05 -0.7579974E-02  0.2075499E+03  0.1572201E+01  0.9862956E+00 -0.2920137E+01  0.1140833E+00  0.2482443E+01
  0.8000000E+00  0.1392177E+01 -0.2854267E+01  0.3956704E+04 -0.1570721E+01  0.5820664E+05 -0.1267905E-01  0.3146517E+03  0.1571863E+01  0.1008093E+01 -0.2863579E+01  0.1354554E+00  0.2398878E+01
  0.9000000E+00  0.1524670E+01 -0.2794453E+01  0.4924374E+04 -0.1570314E+01  0.5670955E+05 -0.1982899E-01  0.4585084E+03  0.1571863E+01  0.1060998E+01 -0.2800279E+01  0.1583453E+00  0.2322951E+01
  0.9999999E+00  0.1675094E+01 -0.2741104E+01  0.5968040E+04 -0.1569697E+01  0.5507530E+05 -0.2943851E-01  0.6435150E+03  0.1572261E+01  0.1106735E+01 -0.2730278E+01  0.1875992E+00  0.2273249E+01
