VARIABLES="w (rad/s)"
"abs(F   1   1)" "angle(F   1   1)"
"abs(F   1   2)" "angle(F   1   2)"
"abs(F   1   3)" "angle(F   1   3)"
"abs(F   1   4)" "angle(F   1   4)"
"abs(F   1   5)" "angle(F   1   5)"
"abs(F   1   6)" "angle(F   1   6)"
Zone t="FKforce - beta =   0.000",I=    10,F=POINT
  0.1000000E+00  0.7780081E+02 -0.1581463E+01  0.8491394E+00 -0.3138524E+01  0.6390926E+05 -0.3986481E-08  0.4604514E+00  0.3137440E+01  0.2125142E+02 -0.1613581E+01  0.6467996E-01 -0.3109596E+01
  0.2000000E+00  0.1846533E+03 -0.1575328E+01  0.8493059E+00 -0.3134286E+01  0.6384112E+05 -0.9474697E-08  0.4629866E+00  0.3131762E+01  0.5097108E+02 -0.1588424E+01  0.6600658E-01 -0.3067042E+01
  0.3000000E+00  0.3681289E+03 -0.1573092E+01  0.8457642E+00 -0.3126876E+01  0.6372705E+05 -0.2000226E-07  0.4610713E+00  0.3121829E+01  0.1034902E+03 -0.1579538E+01  0.6847365E-01 -0.2997714E+01
  0.4000000E+00  0.6461809E+03 -0.1572101E+01  0.8415601E+00 -0.3115441E+01  0.6356599E+05 -0.3694408E-07  0.4642095E+00  0.3106956E+01  0.1862495E+03 -0.1575563E+01  0.7254294E-01 -0.2901164E+01
  0.5000000E+00  0.1003054E+04 -0.1571652E+01  0.8339136E+00 -0.3100206E+01  0.6335673E+05 -0.6140807E-07  0.4657921E+00  0.3087616E+01  0.2982006E+03 -0.1573748E+01  0.7857074E-01 -0.2792256E+01
  0.6000000E+00  0.1433091E+04 -0.1571406E+01  0.8275755E+00 -0.3081242E+01  0.6309755E+05 -0.9219733E-07  0.4673868E+00  0.3064097E+01  0.4417463E+03 -0.1572718E+01  0.8687565E-01 -0.2681746E+01
  0.7000000E+00  0.1932657E+04 -0.1571253E+01  0.8192183E+00 -0.3058152E+01  0.6278663E+05 -0.1351039E-06  0.4736073E+00  0.3037235E+01  0.6204208E+03 -0.1572157E+01  0.9760939E-01 -0.2577297E+01
  0.8000000E+00  0.2497646E+04 -0.1571157E+01  0.8108829E+00 -0.3030820E+01  0.6242159E+05 -0.1885683E-06  0.4825550E+00  0.3007639E+01  0.8380291E+03 -0.1571764E+01  0.1107374E+00 -0.2483120E+01
  0.9000000E+00  0.3123512E+04 -0.1571089E+01  0.7979107E+00 -0.2997889E+01  0.6200005E+05 -0.2615813E-06  0.4837499E+00  0.2972167E+01  0.1098447E+04 -0.1571522E+01  0.1261371E+00 -0.2400613E+01
  0.9999999E+00  0.3805292E+04 -0.1571039E+01  0.7845788E+00 -0.2959541E+01  0.6151911E+05 -0.3512760E-06  0.4924350E+00  0.2935731E+01  0.1405452E+04 -0.1571355E+01  0.1436649E+00 -0.2329655E+01
Zone t="FKforce - beta =  90.000",I=    10,F=POINT
  0.1000000E+00  0.8348655E+00 -0.3138626E+01  0.7780055E+02 -0.1581719E+01  0.6390927E+05  0.6172128E-08  0.2123036E+02  0.1592491E+01  0.9065545E+00 -0.3140311E+01  0.6468840E-01  0.3110487E+01
  0.2000000E+00  0.8369806E+00 -0.3134553E+01  0.1846521E+03 -0.1575392E+01  0.6384110E+05  0.1480979E-07  0.5094920E+02  0.1579870E+01  0.9064817E+00 -0.3138548E+01  0.6602439E-01  0.3069043E+01
  0.3000000E+00  0.8439164E+00 -0.3127613E+01  0.3681266E+03 -0.1573094E+01  0.6372706E+05  0.2940583E-07  0.1034548E+03  0.1575273E+01  0.8987868E+00 -0.3135454E+01  0.6855401E-01  0.3001440E+01
  0.4000000E+00  0.8465850E+00 -0.3116986E+01  0.6461766E+03 -0.1572098E+01  0.6356594E+05  0.5188915E-07  0.1861909E+03  0.1573293E+01  0.8773860E+00 -0.3130514E+01  0.7280429E-01  0.2907377E+01
  0.5000000E+00  0.8566758E+00 -0.3103558E+01  0.1003046E+04 -0.1571630E+01  0.6335670E+05  0.8010456E-07  0.2981106E+03  0.1572360E+01  0.8654923E+00 -0.3124058E+01  0.7923321E-01  0.2801912E+01
  0.6000000E+00  0.8716124E+00 -0.3087682E+01  0.1433080E+04 -0.1571373E+01  0.6309757E+05  0.1157034E-06  0.4416180E+03  0.1571851E+01  0.8573777E+00 -0.3116163E+01  0.8828056E-01  0.2696426E+01
  0.7000000E+00  0.8838962E+00 -0.3069129E+01  0.1932639E+04 -0.1571220E+01  0.6278666E+05  0.1547113E-06  0.6202480E+03  0.1571554E+01  0.8357737E+00 -0.3106154E+01  0.1002362E+00  0.2599261E+01
  0.8000000E+00  0.9024690E+00 -0.3048752E+01  0.2497618E+04 -0.1571121E+01  0.6242157E+05  0.2027141E-06  0.8378013E+03  0.1571363E+01  0.8181912E+00 -0.3094400E+01  0.1152211E+00  0.2515144E+01
  0.9000000E+00  0.9129443E+00 -0.3025141E+01  0.3123478E+04 -0.1571051E+01  0.6200009E+05  0.2534835E-06  0.1098159E+04  0.1571228E+01  0.7965937E+00 -0.3080536E+01  0.1332703E+00  0.2445621E+01
  0.9999999E+00  0.9266888E+00 -0.2999626E+01  0.3805246E+04 -0.1571002E+01  0.6151909E+05  0.3067616E-06  0.1405090E+04  0.1571134E+01  0.7756784E+00 -0.3064454E+01  0.1544188E+00  0.2390437E+01
