VARIABLES="w (rad/s)"
"A   1   1" "B   1   1"
"A   1   2" "B   1   2"
"A   1   3" "B   1   3"
"A   1   4" "B   1   4"
"A   1   5" "B   1   5"
"A   1   6" "B   1   6"
Zone t="Motion of body    1 in DoF   1",I=    10,F=POINT
  0.1000000E+00  0.2488152E+04  0.9146223E-05  0.3896881E+00  0.3785793E-07  0.6428226E+00 -0.1717609E-04 -0.3142088E+00  0.9967399E-08 -0.9290577E+03  0.8141400E-06  0.4942602E-01  0.1049483E-09
  0.2000000E+00  0.2494017E+04  0.1783405E-03  0.3859511E+00  0.6334737E-07  0.6474207E+00 -0.7680898E-04 -0.3131149E+00 -0.2226814E-06 -0.9340723E+03  0.3541000E-05  0.4946709E-01  0.4477847E-08
  0.3000000E+00  0.2503992E+04  0.2458772E-02  0.3873330E+00  0.1276459E-05  0.6447819E+00 -0.3266748E-03 -0.3213882E+00  0.4835577E-07 -0.9319826E+03  0.8809405E-04  0.4955176E-01  0.6016060E-07
  0.4000000E+00  0.2509365E+04  0.1834277E-01  0.3874579E+00  0.6981556E-05  0.6514089E+00 -0.9778603E-03 -0.3003713E+00 -0.1866419E-05 -0.9299370E+03  0.7543458E-03  0.4968119E-01  0.4442978E-06
  0.5000000E+00  0.2515587E+04  0.8604030E-01  0.3951426E+00  0.3450408E-04  0.6425221E+00 -0.2411186E-02 -0.3111542E+00 -0.6513899E-05 -0.9271934E+03  0.4116799E-02  0.4979496E-01  0.2086351E-05
  0.6000000E+00  0.2523462E+04  0.3016992E+00  0.3994278E+00  0.1167849E-03  0.6254083E+00 -0.5038189E-02 -0.3285222E+00 -0.2543709E-04 -0.9231039E+03  0.1721445E-01  0.4999482E-01  0.7336573E-05
  0.7000000E+00  0.2533286E+04  0.8649803E+00  0.4070228E+00  0.3453401E-03  0.6356354E+00 -0.9656292E-02 -0.3187953E+00 -0.7500332E-04 -0.9194443E+03  0.5843474E-01  0.5077414E-01  0.2117741E-04
  0.8000000E+00  0.2545950E+04  0.2138445E+01  0.4068176E+00  0.8829116E-03  0.6274038E+00 -0.1692377E-01 -0.3086411E+00 -0.2035549E-03 -0.9150878E+03  0.1700026E+00  0.5062511E-01  0.5249865E-04
  0.9000000E+00  0.2559769E+04  0.4713831E+01  0.4078932E+00  0.2026039E-02  0.6105315E+00 -0.3319293E-01 -0.3232224E+00 -0.4724636E-03 -0.9087130E+03  0.4385896E+00  0.5140024E-01  0.1167455E-03
  0.9999999E+00  0.2577607E+04  0.9493598E+01  0.4164974E+00  0.4172140E-02  0.5950381E+00 -0.4944263E-01 -0.3214274E+00 -0.1063551E-02 -0.9024926E+03  0.1023310E+01  0.5172116E-01  0.2362383E-03
Zone t="Motion of body    1 in DoF   2",I=    10,F=POINT
  0.1000000E+00  0.4540974E+00  0.2096772E-07  0.2489181E+04  0.9156770E-05 -0.1430768E+01 -0.1447339E-02  0.9289267E+03 -0.8336333E-06  0.3785579E+00  0.2429093E-07 -0.3689411E-01  0.1256005E-08
  0.2000000E+00  0.4496571E+00  0.1337639E-06  0.2495042E+04  0.1784410E-03 -0.1444549E+01 -0.5435191E-02  0.9339497E+03 -0.3436363E-05  0.3735957E+00  0.1084419E-06 -0.3695830E-01  0.1787038E-08
  0.3000000E+00  0.4527270E+00  0.1223785E-05  0.2505030E+04  0.2460800E-02 -0.1486136E+01 -0.1860743E-01  0.9318641E+03 -0.8770468E-04  0.3835591E+00  0.5189515E-06 -0.3741188E-01 -0.3335422E-07
  0.4000000E+00  0.4553529E+00  0.8366820E-05  0.2510393E+04  0.1835573E-01 -0.1496426E+01 -0.4464972E-01  0.9298206E+03 -0.7522502E-03  0.3754634E+00  0.2013639E-05 -0.3762171E-01 -0.3517171E-06
  0.5000000E+00  0.4621966E+00  0.3741408E-04  0.2516616E+04  0.8609489E-01 -0.1530241E+01 -0.8562381E-01  0.9270786E+03 -0.4112325E-02  0.3755921E+00  0.8345565E-05 -0.3789774E-01 -0.1799676E-05
  0.6000000E+00  0.4651832E+00  0.1301304E-03  0.2524520E+04  0.3018908E+00 -0.1570083E+01 -0.1443994E+00  0.9229728E+03 -0.1721380E-01  0.3893380E+00  0.2951745E-04 -0.3818745E-01 -0.6550901E-05
  0.7000000E+00  0.4735770E+00  0.3774023E-03  0.2534354E+04  0.8655339E+00 -0.1571281E+01 -0.2227751E+00  0.9193049E+03 -0.5843336E-01  0.3892100E+00  0.8587474E-04 -0.3812915E-01 -0.1915585E-04
  0.8000000E+00  0.4756161E+00  0.9485073E-03  0.2547015E+04  0.2139824E+01 -0.1565254E+01 -0.3217259E+00  0.9149508E+03 -0.1700252E+00  0.3829365E+00  0.2185538E-03 -0.3896420E-01 -0.4836822E-04
  0.9000000E+00  0.5002733E+00  0.2129268E-02  0.2560847E+04  0.4716950E+01 -0.1578323E+01 -0.4480447E+00  0.9085839E+03 -0.4386940E+00  0.3926497E+00  0.5168586E-03 -0.3904104E-01 -0.1080865E-03
  0.9999999E+00  0.5130597E+00  0.4399048E-02  0.2578698E+04  0.9499999E+01 -0.1572722E+01 -0.5891773E+00  0.9023577E+03 -0.1023588E+01  0.4000368E+00  0.1120200E-02 -0.3986493E-01 -0.2217762E-03
Zone t="Motion of body    1 in DoF   3",I=    10,F=POINT
  0.1000000E+00  0.7682729E+00 -0.5710032E-04  0.7441453E+00 -0.5828048E-04  0.6219522E+04  0.4301223E+01 -0.4762017E+00 -0.3104942E-04  0.3033364E+00 -0.6172765E-04  0.1076342E-01 -0.4362948E-05
  0.2000000E+00  0.7691151E+00 -0.2200827E-03  0.7459716E+00 -0.2222583E-03  0.6280587E+04  0.1611953E+02 -0.4633172E+00 -0.1118515E-03  0.2919571E+00 -0.2347459E-03  0.1051270E-01 -0.1680228E-04
  0.3000000E+00  0.7500490E+00 -0.7892996E-03  0.7251571E+00 -0.7897103E-03  0.6367523E+04  0.5498532E+02 -0.4976709E+00 -0.3682558E-03  0.3042580E+00 -0.7997993E-03  0.1216717E-01 -0.5998470E-04
  0.4000000E+00  0.7716561E+00 -0.2040356E-02  0.7475690E+00 -0.2005309E-02  0.6445182E+04  0.1311564E+03 -0.4592927E+00 -0.8104894E-03  0.2798422E+00 -0.1948028E-02  0.1114062E-01 -0.1517942E-03
  0.5000000E+00  0.7771230E+00 -0.4203171E-02  0.7531469E+00 -0.4081409E-02  0.6505326E+04  0.2497775E+03 -0.4685572E+00 -0.1400984E-02  0.2883263E+00 -0.3814949E-02  0.1080442E-01 -0.3111152E-03
  0.6000000E+00  0.7476671E+00 -0.7641971E-02  0.7317514E+00 -0.7312484E-02  0.6542333E+04  0.4176551E+03 -0.5021742E+00 -0.1993439E-02  0.3105808E+00 -0.6641716E-02  0.1052727E-01 -0.5667845E-03
  0.7000000E+00  0.7601064E+00 -0.1279610E-01  0.7505508E+00 -0.1197742E-01  0.6555854E+04  0.6374540E+03 -0.4880252E+00 -0.2547638E-02  0.2949568E+00 -0.1036896E-01  0.7974090E-02 -0.9401904E-03
  0.8000000E+00  0.7682037E+00 -0.2018094E-01  0.7649381E+00 -0.1850675E-01  0.6533430E+04  0.9085277E+03 -0.4655102E+00 -0.3032128E-02  0.2828648E+00 -0.1537606E-01  0.9090363E-02 -0.1495195E-02
  0.9000000E+00  0.7635032E+00 -0.2985501E-01  0.7665547E+00 -0.2670608E-01  0.6475732E+04  0.1225973E+04 -0.4818432E+00 -0.2625487E-02  0.3141932E+00 -0.2143372E-01  0.5890504E-02 -0.2201514E-02
  0.9999999E+00  0.7680946E+00 -0.4235387E-01  0.7785922E+00 -0.3654644E-01  0.6389836E+04  0.1585157E+04 -0.4847180E+00 -0.1940131E-02  0.3168378E+00 -0.2868272E-01  0.6728053E-02 -0.3210086E-02
Zone t="Motion of body    1 in DoF   4",I=    10,F=POINT
  0.1000000E+00  0.1036444E+00  0.5803713E-09  0.9521165E+03 -0.1551208E-06 -0.6936811E+00 -0.6498873E-03  0.3929921E+04 -0.1700804E-05  0.3922589E-01  0.1159529E-07  0.1959443E-01  0.6577986E-09
  0.2000000E+00  0.1026588E+00  0.4073468E-07  0.9571166E+03  0.2633055E-05 -0.6945643E+00 -0.2440125E-02  0.3931805E+04  0.7989840E-05  0.3265381E-01 -0.9593492E-08  0.1966429E-01  0.2757088E-08
  0.3000000E+00  0.9431554E-01  0.3478863E-06  0.9559664E+03  0.1065178E-05 -0.7273178E+00 -0.8361406E-02  0.3930993E+04 -0.7845717E-05  0.5035668E-01  0.1845430E-06  0.1924392E-01  0.9188296E-08
  0.4000000E+00  0.1245454E+00  0.1775574E-05  0.9547856E+03 -0.8257108E-04 -0.7129698E+00 -0.2000302E-01  0.3931118E+04 -0.3942407E-05  0.3885072E-01  0.4271492E-06  0.1959446E-01  0.2488268E-07
  0.5000000E+00  0.1151896E+00  0.7810468E-05  0.9520818E+03 -0.1010299E-02 -0.7296583E+00 -0.3829146E-01  0.3933191E+04  0.7749088E-04  0.3893298E-01  0.1007560E-05  0.1966630E-01  0.7237786E-07
  0.6000000E+00  0.9587980E-01  0.2630764E-04  0.9474709E+03 -0.6335909E-02 -0.7595674E+00 -0.6445745E-01  0.3936483E+04  0.3230759E-03  0.5211490E-01  0.2223783E-05  0.1968013E-01  0.2231656E-06
  0.7000000E+00  0.1167195E+00  0.7193947E-04  0.9435095E+03 -0.2755826E-01 -0.7518581E+00 -0.9942969E-01  0.3939141E+04  0.1916152E-02  0.4843303E-01  0.4540104E-05  0.2014231E-01  0.7662148E-06
  0.8000000E+00  0.1309537E+00  0.1761169E-03  0.9408832E+03 -0.9480939E-01 -0.7387252E+00 -0.1430938E+00  0.3938383E+04  0.7705896E-02  0.3874208E-01  0.1057891E-04  0.2003336E-01  0.2407994E-05
  0.9000000E+00  0.1150179E+00  0.3661460E-03  0.9347660E+03 -0.2669661E+00 -0.7655768E+00 -0.2049101E+00  0.3943494E+04  0.2513133E-01  0.4063334E-01  0.2277750E-04  0.2076618E-01  0.6542938E-05
  0.9999999E+00  0.1247481E+00  0.7327466E-03  0.9305985E+03 -0.6838508E+00 -0.7604939E+00 -0.2683049E+00  0.3943495E+04  0.7412919E-01  0.4693459E-01  0.3990103E-04  0.2065852E-01  0.1663560E-04
Zone t="Motion of body    1 in DoF   5",I=    10,F=POINT
  0.1000000E+00 -0.9510307E+03  0.2113845E-06 -0.5264850E-01  0.3335558E-07 -0.4726736E+00 -0.4784690E-03  0.2718955E-01 -0.8276546E-07  0.3930722E+04 -0.1785147E-05  0.1082174E-01  0.3016094E-09
  0.2000000E+00 -0.9560169E+03 -0.2238120E-05 -0.5769784E-01  0.2765096E-06 -0.4925417E+00 -0.1788719E-02  0.2503615E-01  0.1273966E-06  0.3932609E+04  0.7651984E-05  0.1068851E-01  0.2320951E-08
  0.3000000E+00 -0.9548678E+03  0.1268440E-05 -0.4222642E-01  0.1436910E-06 -0.4911368E+00 -0.6105839E-02  0.3716962E-01 -0.2460231E-06  0.3931810E+04 -0.6931679E-05  0.1084411E-01  0.4522795E-08
  0.4000000E+00 -0.9536795E+03  0.9725215E-04 -0.5503206E-01 -0.8220118E-06 -0.5135292E+00 -0.1454109E-01  0.1510413E-01 -0.1194034E-05  0.3931921E+04 -0.1541527E-05  0.1072688E-01  0.2415569E-07
  0.5000000E+00 -0.9509717E+03  0.1074572E-02 -0.6344046E-01 -0.3533602E-05 -0.5151861E+00 -0.2765398E-01  0.2559864E-01 -0.2786877E-06  0.3933996E+04  0.8109632E-04  0.1079220E-01  0.6090884E-07
  0.6000000E+00 -0.9463607E+03  0.6562137E-02 -0.4463670E-01 -0.1672587E-04 -0.4991352E+00 -0.4608487E-01  0.3852464E-01 -0.1961339E-05  0.3937301E+04  0.3372195E-03  0.1094249E-01  0.2249536E-06
  0.7000000E+00 -0.9423864E+03  0.2821126E-01 -0.4911951E-01 -0.4023397E-04 -0.5071648E+00 -0.7010735E-01  0.2643568E-01  0.9578954E-05  0.3939976E+04  0.1963284E-02  0.1090457E-01  0.7840973E-06
  0.8000000E+00 -0.9397509E+03  0.9641791E-01 -0.5873341E-01 -0.1125066E-03 -0.5149379E+00 -0.9955713E-01  0.1279066E-01 -0.4288338E-05  0.3939202E+04  0.7843217E-02  0.1123695E-01  0.2539446E-05
  0.9000000E+00 -0.9335604E+03  0.2707693E+00 -0.7947753E-01 -0.3289705E-03 -0.5238153E+00 -0.1391438E+00  0.3865000E-01 -0.7489940E-05  0.3944361E+04  0.2551536E-01  0.1084972E-01  0.6958033E-05
  0.9999999E+00 -0.9293852E+03  0.6915462E+00 -0.7418025E-01 -0.6644471E-03 -0.5151277E+00 -0.1788902E+00  0.3408144E-01  0.4737200E-04  0.3944337E+04  0.7498764E-01  0.1122752E-01  0.1760531E-04
Zone t="Motion of body    1 in DoF   6",I=    10,F=POINT
  0.1000000E+00  0.6525326E-01 -0.1086121E-08 -0.2606620E-01 -0.1574875E-08  0.1447579E+00  0.1075650E-03  0.1158422E-01 -0.7772498E-09  0.2353842E-01 -0.1537474E-08  0.1875983E-02 -0.1095563E-09
  0.2000000E+00  0.6533555E-01  0.6928644E-09 -0.2611259E-01 -0.8056901E-08  0.1462173E+00  0.4030240E-03  0.1167728E-01 -0.2699136E-08  0.2336949E-01 -0.5437318E-08  0.1870630E-02 -0.4193182E-09
  0.3000000E+00  0.6526281E-01  0.6720097E-07 -0.2656188E-01 -0.5389631E-07  0.1488702E+00  0.1375136E-02  0.1148069E-01 -0.7896314E-08  0.2325075E-01 -0.1734430E-07  0.1877805E-02 -0.1501436E-08
  0.4000000E+00  0.6548505E-01  0.5989477E-06 -0.2677009E-01 -0.3082712E-06  0.1501354E+00  0.3281242E-02  0.1183917E-01 -0.9693604E-08  0.2322304E-01 -0.2238141E-07  0.1856649E-02 -0.3766936E-08
  0.5000000E+00  0.6567635E-01  0.2955308E-05 -0.2699864E-01 -0.1320778E-05  0.1514531E+00  0.6250162E-02  0.1190552E-01  0.2468628E-07  0.2330193E-01  0.5173399E-07  0.1856110E-02 -0.7709740E-08
  0.6000000E+00  0.6600603E-01  0.1059327E-04 -0.2711351E-01 -0.4502550E-05  0.1526761E+00  0.1045234E-01  0.1182228E-01  0.1910663E-06  0.2349930E-01  0.4488238E-06  0.1876975E-02 -0.1382938E-07
  0.7000000E+00  0.6734000E-01  0.3078359E-04 -0.2668930E-01 -0.1283775E-04  0.1534583E+00  0.1595125E-01  0.1177032E-01  0.7821650E-06  0.2409086E-01  0.1845632E-05  0.1865496E-02 -0.2252349E-07
  0.8000000E+00  0.6710880E-01  0.7691870E-04 -0.2763583E-01 -0.3188927E-04  0.1521900E+00  0.2273056E-01  0.1207380E-01  0.2408641E-05  0.2407729E-01  0.5779161E-05  0.1857530E-02 -0.3485215E-07
  0.9000000E+00  0.6825393E-01  0.1713776E-03 -0.2740211E-01 -0.7122992E-04  0.1500131E+00  0.3070609E-01  0.1231353E-01  0.6478659E-05  0.2420595E-01  0.1546831E-04  0.1867394E-02 -0.4928372E-07
  0.9999999E+00  0.6887570E-01  0.3484409E-03 -0.2813769E-01 -0.1455151E-03  0.1483334E+00  0.3966221E-01  0.1240625E-01  0.1552152E-04  0.2465300E-01  0.3694249E-04  0.1872544E-02 -0.6832747E-07
